<?xml version="1.0"?>
<VTKFile type="UnstructuredGrid" version="0.1" byte_order="LittleEndian" header_type="UInt32" compressor="vtkZLibDataCompressor">
  <UnstructuredGrid>
    <Piece NumberOfPoints="4416" NumberOfCells="3472">
      <PointData>
        <DataArray type="Float32" Name="NODE" NumberOfComponents="3" format="ascii" RangeMin="1" RangeMax="10.63014581273465">
          1 0 0 1.346519947052002 0 0
          1.5547300577163696 0 0 1.787500023841858 0 0
          2.023439884185791 0 0 2.2593801021575928 0 0
          2.495310068130493 0 0 2.731250047683716 0 0
          2.9671900272369385 0 0 3.203119993209839 0 0
          3.4390599727630615 0 0 3.674999952316284 0 0
          3.910939931869507 0 0 4.146880149841309 0 0
          4.382810115814209 0 0 4.618750095367432 0 0
          4.854690074920654 0 0 5.090630054473877 0 0
          5.326560020446777 0 0 5.5625 0 0
          5.798439979553223 0 0 6.034369945526123 0 0
          6.270309925079346 0 0 6.506249904632568 0 0
          6.742189884185791 0 0 6.978129863739014 0 0
          7.214059829711914 0 0 7.449999809265137 0 0
          7.685939788818359 0 0 7.921879768371582 0 0
          8.15781021118164 0 0 8.393750190734863 0 0
          8.629690170288086 0 0 8.865619659423828 0 0
          9.10155963897705 0 0 9.337499618530273 0 0
          9.570269584655762 0 0 9.77847957611084 0 0
          10 0 0 1 0.12612800300121307 0
          1.2903000116348267 0.1790969967842102 0 1.5303499698638916 0.18997199833393097 0
          1.776900053024292 0.19288599491119385 0 2.01924991607666 0.19366100430488586 0
          2.257920026779175 0.19385799765586853 0 2.4948699474334717 0.19391700625419617 0
          2.731139898300171 0.19393999874591827 0 2.967170000076294 0.19395199418067932 0
          3.203119993209839 0.19395799934864044 0 3.4390599727630615 0.19395999610424042 0
          3.674999952316284 0.1939609944820404 0 3.910939931869507 0.1939609944820404 0
          4.146870136260986 0.1939609944820404 0 4.382810115814209 0.1939609944820404 0
          4.618750095367432 0.1939609944820404 0 4.854690074920654 0.1939609944820404 0
          5.090620040893555 0.1939609944820404 0 5.326560020446777 0.1939609944820404 0
          5.5625 0.1939609944820404 0 5.798439979553223 0.1939609944820404 0
          6.034379959106445 0.1939609944820404 0 6.270309925079346 0.1939609944820404 0
          6.506249904632568 0.1939609944820404 0 6.742189884185791 0.1939609944820404 0
          6.978129863739014 0.1939609944820404 0 7.214059829711914 0.1939609944820404 0
          7.449999809265137 0.1939609944820404 0 7.685939788818359 0.19395999610424042 0
          7.921870231628418 0.19395600259304047 0 8.15781021118164 0.19394899904727936 0
          8.393779754638672 0.19394099712371826 0 8.629839897155762 0.19394800066947937 0
          8.866169929504395 0.19402499496936798 0 9.103099822998047 0.19429199397563934 0
          9.341190338134766 0.19496500492095947 0 9.578060150146484 0.19645899534225464 0
          9.79574966430664 0.19949199259281158 0 10 0.20161999762058258 0
          1 0.43642398715019226 0 1.2708799839019775 0.432220995426178 0
          1.518530011177063 0.43206098675727844 0 1.771090030670166 0.4326210021972656 0
          2.0168099403381348 0.43299400806427 0 2.257050037384033 0.4331440031528473 0
          2.494610071182251 0.43320000171661377 0 2.731070041656494 0.4332219958305359 0
          2.9671499729156494 0.4332300126552582 0 3.203119993209839 0.43323299288749695 0
          3.4390599727630615 0.43323400616645813 0 3.674999952316284 0.4332349896430969 0
          3.910939931869507 0.4332349896430969 0 4.146870136260986 0.4332349896430969 0
          4.382810115814209 0.4332349896430969 0 4.618750095367432 0.4332349896430969 0
          4.854690074920654 0.4332349896430969 0 5.090620040893555 0.4332349896430969 0
          5.326560020446777 0.4332349896430969 0 5.5625 0.4332349896430969 0
          5.798439979553223 0.4332349896430969 0 6.034379959106445 0.4332349896430969 0
          6.270309925079346 0.4332349896430969 0 6.506249904632568 0.4332349896430969 0
          6.742189884185791 0.4332349896430969 0 6.978129863739014 0.4332349896430969 0
          7.214059829711914 0.4332349896430969 0 7.449999809265137 0.4332349896430969 0
          7.685929775238037 0.43323400616645813 0 7.921870231628418 0.43323200941085815 0
          8.15781021118164 0.4332279860973358 0 8.393799781799316 0.43322399258613586 0
          8.629949569702148 0.43322399258613586 0 8.86655044555664 0.4332520067691803 0
          9.104180335998535 0.4333600103855133 0 9.343649864196777 0.4336549937725067 0
          9.582579612731934 0.43435999751091003 0 9.801850318908691 0.4356609880924225 0
          10 0.4369179904460907 0 1 0.6989020109176636 0
          1.267259955406189 0.7046080231666565 0 1.517989993095398 0.6999940276145935 0
          1.7707600593566895 0.6985520124435425 0 2.016580104827881 0.6981859803199768 0
          2.2569499015808105 0.6980689764022827 0 2.494580030441284 0.6980360150337219 0
          2.731070041656494 0.698028028011322 0 2.9671499729156494 0.6980270147323608 0
          3.203119993209839 0.6980270147323608 0 3.4390599727630615 0.6980270147323608 0
          3.674999952316284 0.6980270147323608 0 3.910939931869507 0.6980270147323608 0
          4.146870136260986 0.6980270147323608 0 4.382810115814209 0.6980270147323608 0
          4.618750095367432 0.6980270147323608 0 4.854690074920654 0.6980270147323608 0
          5.090620040893555 0.6980270147323608 0 5.326560020446777 0.6980270147323608 0
          5.5625 0.6980270147323608 0 5.798439979553223 0.6980270147323608 0
          6.034379959106445 0.6980270147323608 0 6.270309925079346 0.6980270147323608 0
          6.506249904632568 0.6980270147323608 0 6.742189884185791 0.6980270147323608 0
          6.978129863739014 0.6980270147323608 0 7.214059829711914 0.6980270147323608 0
          7.449999809265137 0.6980270147323608 0 7.685929775238037 0.6980260014533997 0
          7.921870231628418 0.6980260014533997 0 8.15781021118164 0.6980230212211609 0
          8.393810272216797 0.6980199813842773 0 8.630000114440918 0.6980159878730774 0
          8.866729736328125 0.6980190277099609 0 9.104669570922852 0.6980460286140442 0
          9.34473991394043 0.6981469988822937 0 9.584529876708984 0.6984480023384094 0
          9.804149627685547 0.6991479992866516 0 10 0.699999988079071 0
          0 1 0 0.16683000326156616 1 0
          0.37504100799560547 1 0 0.6076549887657166 1 0
          0.8428570032119751 1 0 1 1 0
          1.2740600109100342 0.9795269966125488 0 1.5253100395202637 0.9700199961662292 0
          1.7742999792099 0.9671379923820496 0 2.0179500579833984 0.9662290215492249 0
          2.257430076599121 0.9659010171890259 0 2.494729995727539 0.9657920002937317 0
          2.731110095977783 0.9657589793205261 0 2.9671599864959717 0.9657490253448486 0
          3.203119993209839 0.9657469987869263 0 3.4390599727630615 0.9657459855079651 0
          3.674999952316284 0.9657459855079651 0 3.910939931869507 0.9657459855079651 0
          4.146870136260986 0.9657459855079651 0 4.382810115814209 0.9657459855079651 0
          4.618750095367432 0.9657459855079651 0 4.854690074920654 0.9657459855079651 0
          5.090620040893555 0.9657459855079651 0 5.326560020446777 0.9657459855079651 0
          5.5625 0.9657459855079651 0 5.798439979553223 0.9657459855079651 0
          6.034379959106445 0.9657459855079651 0 6.270309925079346 0.9657459855079651 0
          6.506249904632568 0.9657459855079651 0 6.742189884185791 0.9657459855079651 0
          6.978129863739014 0.9657459855079651 0 7.214059829711914 0.9657459855079651 0
          7.449999809265137 0.9657459855079651 0 7.685929775238037 0.9657459855079651 0
          7.921870231628418 0.9657449722290039 0 8.15781021118164 0.9657440185546875 0
          8.393810272216797 0.965740978717804 0 8.630020141601562 0.965736985206604 0
          8.866789817810059 0.9657340049743652 0 9.104849815368652 0.965736985206604 0
          9.345149993896484 0.9657679796218872 0 9.585269927978516 0.9658910036087036 0
          9.805120468139648 0.9662190079689026 0 10 0.9666669964790344 0
          0 1.2682900428771973 0 0.17167599499225616 1.2410600185394287 0
          0.3756119906902313 1.233240008354187 0 0.6055229902267456 1.2333699464797974 0
          0.8371800184249878 1.2356899976730347 0 1.0511300563812256 1.2450200319290161 0
          1.2906399965286255 1.2387700080871582 0 1.5354599952697754 1.2356499433517456 0
          1.7791800498962402 1.2341500520706177 0 2.01990008354187 1.2334599494934082 0
          2.2581100463867188 1.2331700325012207 0 2.4949400424957275 1.2330600023269653 0
          2.7311599254608154 1.2330199480056763 0 2.967170000076294 1.2330100536346436 0
          3.203119993209839 1.2330100536346436 0 3.4390599727630615 1.2330100536346436 0
          3.674999952316284 1.2330100536346436 0 3.910939931869507 1.2330100536346436 0
          4.146870136260986 1.2330100536346436 0 4.382810115814209 1.2330100536346436 0
          4.618750095367432 1.2330100536346436 0 4.854690074920654 1.2330100536346436 0
          5.090620040893555 1.2330100536346436 0 5.326560020446777 1.2330100536346436 0
          5.5625 1.2330100536346436 0 5.798439979553223 1.2330100536346436 0
          6.034379959106445 1.2330100536346436 0 6.270309925079346 1.2330100536346436 0
          6.506249904632568 1.2330100536346436 0 6.742189884185791 1.2330100536346436 0
          6.978129863739014 1.2330100536346436 0 7.214059829711914 1.2330100536346436 0
          7.449999809265137 1.2330100536346436 0 7.685929775238037 1.2330100536346436 0
          7.921870231628418 1.2330100536346436 0 8.15781021118164 1.2330100536346436 0
          8.393810272216797 1.2330100536346436 0 8.630020141601562 1.2330000400543213 0
          8.866809844970703 1.2330000400543213 0 9.104900360107422 1.2330000400543213 0
          9.345270156860352 1.2330100536346436 0 9.585530281066895 1.233049988746643 0
          9.805489540100098 1.2331600189208984 0 10 1.2333300113677979 0
          0 1.5035899877548218 0 0.1702439934015274 1.4921599626541138 0
          0.3752869963645935 1.4870699644088745 0 0.605243980884552 1.487380027770996 0
          0.8372669816017151 1.4919899702072144 0 1.066580057144165 1.4993599653244019 0
          1.3033000230789185 1.501189947128296 0 1.5433000326156616 1.5010499954223633 0
          1.783139944076538 1.5006200075149536 0 2.021559953689575 1.5002800226211548 0
          2.2587099075317383 1.5001100301742554 0 2.495120048522949 1.500040054321289 0
          2.7312099933624268 1.5000100135803223 0 2.967180013656616 1.5 0
          3.203130006790161 1.5 0 3.4390599727630615 1.5 0
          3.674999952316284 1.5 0 3.910939931869507 1.5 0
          4.146870136260986 1.5 0 4.382810115814209 1.5 0
          4.618750095367432 1.5 0 4.854690074920654 1.5 0
          5.090620040893555 1.5 0 5.326560020446777 1.5 0
          5.5625 1.5 0 5.798439979553223 1.5 0
          6.034379959106445 1.5 0 6.270309925079346 1.5 0
          6.506249904632568 1.5 0 6.742189884185791 1.5 0
          6.978129863739014 1.5 0 7.214059829711914 1.5 0
          7.449999809265137 1.5 0 7.685929775238037 1.5 0
          7.921870231628418 1.5 0 8.15781021118164 1.5 0
          8.393810272216797 1.5 0 8.630020141601562 1.5 0
          8.866809844970703 1.5 0 9.104909896850586 1.5 0
          9.34529972076416 1.5 0 9.585590362548828 1.5 0
          9.805580139160156 1.5 0 10 1.5 0
          0 1.7666699886322021 0 0.16928599774837494 1.7618000507354736 0
          0.37534499168395996 1.7592999935150146 0 0.6062189936637878 1.759529948234558 0
          0.8402130007743835 1.761929988861084 0 1.074120044708252 1.7652499675750732 0
          1.3103400468826294 1.766890048980713 0 1.547950029373169 1.7673100233078003 0
          1.7855700254440308 1.7672499418258667 0 2.0226099491119385 1.7671300172805786 0
          2.259089946746826 1.76705002784729 0 2.4952399730682373 1.7670199871063232 0
          2.7312400341033936 1.7669999599456787 0 2.9671900272369385 1.7669999599456787 0
          3.203130006790161 1.7669899463653564 0 3.4390599727630615 1.7669899463653564 0
          3.674999952316284 1.7669899463653564 0 3.910939931869507 1.7669899463653564 0
          4.146870136260986 1.7669899463653564 0 4.382810115814209 1.7669899463653564 0
          4.618750095367432 1.7669899463653564 0 4.854690074920654 1.7669899463653564 0
          5.090620040893555 1.7669899463653564 0 5.326560020446777 1.7669899463653564 0
          5.5625 1.7669899463653564 0 5.798439979553223 1.7669899463653564 0
          6.034379959106445 1.7669899463653564 0 6.270309925079346 1.7669899463653564 0
          6.506249904632568 1.7669899463653564 0 6.742189884185791 1.7669899463653564 0
          6.978129863739014 1.7669899463653564 0 7.214059829711914 1.7669899463653564 0
          7.449999809265137 1.7669899463653564 0 7.685929775238037 1.7669899463653564 0
          7.921870231628418 1.7669899463653564 0 8.15781021118164 1.7669899463653564 0
          8.393810272216797 1.7669899463653564 0 8.630020141601562 1.7669999599456787 0
          8.866809844970703 1.7669999599456787 0 9.104900360107422 1.7669999599456787 0
          9.345270156860352 1.7669899463653564 0 9.585530281066895 1.766950011253357 0
          9.805489540100098 1.7668399810791016 0 10 1.7666699886322021 0
          0 2.033329963684082 0 0.16900500655174255 2.0318000316619873 0
          0.37554600834846497 2.0309998989105225 0 0.6070870161056519 2.0311601161956787 0
          0.8422110080718994 2.0321099758148193 0 1.0775699615478516 2.0333399772644043 0
          1.3136399984359741 2.0340800285339355 0 1.5501999855041504 2.034329891204834 0
          1.7867799997329712 2.0343499183654785 0 2.0231399536132812 2.0343101024627686 0
          2.25927996635437 2.0342800617218018 0 2.4952900409698486 2.0342700481414795 0
          2.731250047683716 2.0342600345611572 0 2.9671900272369385 2.0342600345611572 0
          3.203130006790161 2.034250020980835 0 3.4390599727630615 2.034250020980835 0
          3.674999952316284 2.034250020980835 0 3.910939931869507 2.034250020980835 0
          4.146870136260986 2.034250020980835 0 4.382810115814209 2.034250020980835 0
          4.618750095367432 2.034250020980835 0 4.854690074920654 2.034250020980835 0
          5.090620040893555 2.034250020980835 0 5.326560020446777 2.034250020980835 0
          5.5625 2.034250020980835 0 5.798439979553223 2.034250020980835 0
          6.034379959106445 2.034250020980835 0 6.270309925079346 2.034250020980835 0
          6.506249904632568 2.034250020980835 0 6.742189884185791 2.034250020980835 0
          6.978129863739014 2.034250020980835 0 7.214059829711914 2.034250020980835 0
          7.449999809265137 2.034250020980835 0 7.685929775238037 2.034250020980835 0
          7.921870231628418 2.034250020980835 0 8.15781021118164 2.0342600345611572 0
          8.393810272216797 2.0342600345611572 0 8.630020141601562 2.0342600345611572 0
          8.866789817810059 2.0342700481414795 0 9.104849815368652 2.0342600345611572 0
          9.345149993896484 2.0342299938201904 0 9.585269927978516 2.0341100692749023 0
          9.805120468139648 2.033780097961426 0 10 2.033329963684082 0
          0 2.299999952316284 0 0.16927799582481384 2.300309896469116 0
          0.3757300078868866 2.300570011138916 0 0.6075149774551392 2.3008100986480713 0
          0.8431079983711243 2.30118989944458 0 1.0789300203323364 2.3016200065612793 0
          1.3149700164794922 2.3018898963928223 0 1.5511300563812256 2.302000045776367 0
          1.7872799634933472 2.3020100593566895 0 2.023360013961792 2.302000045776367 0
          2.2593600749969482 2.301990032196045 0 2.495310068130493 2.3019800186157227 0
          2.731250047683716 2.3019800186157227 0 2.9671900272369385 2.3019700050354004 0
          3.203130006790161 2.3019700050354004 0 3.4390599727630615 2.3019700050354004 0
          3.674999952316284 2.3019700050354004 0 3.910939931869507 2.3019700050354004 0
          4.146870136260986 2.3019700050354004 0 4.382810115814209 2.3019700050354004 0
          4.618750095367432 2.3019700050354004 0 4.854690074920654 2.3019700050354004 0
          5.090630054473877 2.3019700050354004 0 5.326560020446777 2.3019700050354004 0
          5.5625 2.3019700050354004 0 5.798439979553223 2.3019700050354004 0
          6.034379959106445 2.3019700050354004 0 6.270309925079346 2.3019700050354004 0
          6.506249904632568 2.3019700050354004 0 6.742189884185791 2.3019700050354004 0
          6.978129863739014 2.3019700050354004 0 7.214059829711914 2.3019700050354004 0
          7.449999809265137 2.3019700050354004 0 7.685929775238037 2.3019700050354004 0
          7.921870231628418 2.3019700050354004 0 8.15781021118164 2.3019800186157227 0
          8.393810272216797 2.3019800186157227 0 8.630000114440918 2.3019800186157227 0
          8.866729736328125 2.3019800186157227 0 9.104669570922852 2.301949977874756 0
          9.34473991394043 2.3018500804901123 0 9.584529876708984 2.3015499114990234 0
          9.804149627685547 2.3008499145507812 0 10 2.299999952316284 0
          0 2.563080072402954 0 0.16994599997997284 2.56466007232666 0
          0.37590399384498596 2.56564998626709 0 0.6076899766921997 2.5661699771881104 0
          0.843442976474762 2.566459894180298 0 1.0794099569320679 2.566649913787842 0
          1.3154300451278687 2.5667600631713867 0 1.5514500141143799 2.5667901039123535 0
          1.7874599695205688 2.5667901039123535 0 2.023430109024048 2.5667800903320312 0
          2.2593801021575928 2.5667800903320312 0 2.4953200817108154 2.566770076751709 0
          2.731250047683716 2.566770076751709 0 2.9671900272369385 2.566770076751709 0
          3.203130006790161 2.566770076751709 0 3.4390599727630615 2.566770076751709 0
          3.674999952316284 2.566770076751709 0 3.910939931869507 2.566770076751709 0
          4.146870136260986 2.566770076751709 0 4.382810115814209 2.566770076751709 0
          4.618750095367432 2.566770076751709 0 4.854690074920654 2.566770076751709 0
          5.090630054473877 2.566770076751709 0 5.326560020446777 2.566770076751709 0
          5.5625 2.566770076751709 0 5.798439979553223 2.566770076751709 0
          6.034379959106445 2.566770076751709 0 6.270309925079346 2.566770076751709 0
          6.506249904632568 2.566770076751709 0 6.742189884185791 2.566770076751709 0
          6.978129863739014 2.566770076751709 0 7.214059829711914 2.566770076751709 0
          7.449999809265137 2.566770076751709 0 7.685929775238037 2.566770076751709 0
          7.921870231628418 2.566770076751709 0 8.15781021118164 2.566770076751709 0
          8.393799781799316 2.5667800903320312 0 8.629949569702148 2.5667800903320312 0
          8.86655044555664 2.5667500495910645 0 9.104180335998535 2.5666399002075195 0
          9.343649864196777 2.5663399696350098 0 9.582579612731934 2.5656399726867676 0
          9.801850318908691 2.564340114593506 0 10 2.563080072402954 0
          0 2.798379898071289 0 0.16985799372196198 2.802419900894165 0
          0.3759770095348358 2.8040900230407715 0 0.6078630089759827 2.8051700592041016 0
          0.843638002872467 2.805720090866089 0 1.0795999765396118 2.8059799671173096 0
          1.3155800104141235 2.80607008934021 0 1.5515400171279907 2.8060801029205322 0
          1.787500023841858 2.80607008934021 0 2.023439884185791 2.8060600757598877 0
          2.2593801021575928 2.8060500621795654 0 2.495310068130493 2.806040048599243 0
          2.731250047683716 2.806040048599243 0 2.9671900272369385 2.806040048599243 0
          3.203119993209839 2.806040048599243 0 3.4390599727630615 2.806040048599243 0
          3.674999952316284 2.806040048599243 0 3.910939931869507 2.806040048599243 0
          4.146870136260986 2.806040048599243 0 4.382810115814209 2.806040048599243 0
          4.618750095367432 2.806040048599243 0 4.854690074920654 2.806040048599243 0
          5.090630054473877 2.806040048599243 0 5.326560020446777 2.806040048599243 0
          5.5625 2.806040048599243 0 5.798439979553223 2.806040048599243 0
          6.034379959106445 2.806040048599243 0 6.270309925079346 2.806040048599243 0
          6.506249904632568 2.806040048599243 0 6.742189884185791 2.806040048599243 0
          6.978129863739014 2.806040048599243 0 7.214059829711914 2.806040048599243 0
          7.449999809265137 2.806040048599243 0 7.685939788818359 2.806040048599243 0
          7.921870231628418 2.806040048599243 0 8.15781021118164 2.8060500621795654 0
          8.393779754638672 2.8060600757598877 0 8.629839897155762 2.8060500621795654 0
          8.866169929504395 2.8059699535369873 0 9.103099822998047 2.8057100772857666 0
          9.341190338134766 2.805039882659912 0 9.578060150146484 2.803539991378784 0
          9.79574966430664 2.8005099296569824 0 10 2.798379898071289 0
          0 3 0 0.16683000326156616 3 0
          0.37504100799560547 3 0 0.6078119874000549 3 0
          0.84375 3 0 1.0796899795532227 3 0
          1.3156299591064453 3 0 1.5515600442886353 3 0
          1.787500023841858 3 0 2.023439884185791 3 0
          2.2593801021575928 3 0 2.495310068130493 3 0
          2.731250047683716 3 0 2.9671900272369385 3 0
          3.203119993209839 3 0 3.4390599727630615 3 0
          3.674999952316284 3 0 3.910939931869507 3 0
          4.146870136260986 3 0 4.382810115814209 3 0
          4.618750095367432 3 0 4.854690074920654 3 0
          5.090630054473877 3 0 5.326560020446777 3 0
          5.5625 3 0 5.798439979553223 3 0
          6.034379959106445 3 0 6.270309925079346 3 0
          6.506249904632568 3 0 6.742189884185791 3 0
          6.978129863739014 3 0 7.214059829711914 3 0
          7.449999809265137 3 0 7.685939788818359 3 0
          7.921879768371582 3 0 8.15781021118164 3 0
          8.393750190734863 3 0 8.629690170288086 3 0
          8.865619659423828 3 0 9.10155963897705 3 0
          9.337499618530273 3 0 9.570269584655762 3 0
          9.77847957611084 3 0 10 3 0
          1 0 0.24633799493312836 1.2821600437164307 0 0.23687799274921417
          1.5258899927139282 0 0.23172999918460846 1.7747299671173096 0 0.23040199279785156
          2.018310070037842 0 0.22997300326824188 2.2575700283050537 0 0.22981099784374237
          2.494760036468506 0 0.229762002825737 2.731110095977783 0 0.22975200414657593
          2.9671599864959717 0 0.22975300252437592 3.203119993209839 0 0.22975599765777588
          3.4390599727630615 0 0.22975699603557587 3.674999952316284 0 0.22975799441337585
          3.910939931869507 0 0.22975799441337585 4.146870136260986 0 0.22975799441337585
          4.382810115814209 0 0.22975799441337585 4.618750095367432 0 0.22975799441337585
          4.854690074920654 0 0.22975799441337585 5.090620040893555 0 0.22975799441337585
          5.326560020446777 0 0.22975799441337585 5.5625 0 0.22975799441337585
          5.798439979553223 0 0.22975799441337585 6.034379959106445 0 0.22975799441337585
          6.270309925079346 0 0.22975799441337585 6.506249904632568 0 0.22975799441337585
          6.742189884185791 0 0.22975799441337585 6.978129863739014 0 0.22975799441337585
          7.214059829711914 0 0.22975799441337585 7.449999809265137 0 0.22975799441337585
          7.685939788818359 0 0.22975699603557587 7.921870231628418 0 0.2297549992799759
          8.157819747924805 0 0.22975300252437592 8.393790245056152 0 0.22975300252437592
          8.629870414733887 0 0.22976799309253693 8.866239547729492 0 0.22983799874782562
          9.103280067443848 0 0.23006799817085266 9.341620445251465 0 0.23068399727344513
          9.579130172729492 0 0.23247399926185608 9.798230171203613 0 0.2385679930448532
          10 0 0.2554439902305603 1 0.18863500654697418 0.24924300611019135
          1.2316900491714478 0.17325200140476227 0.21441000699996948 1.5139800310134888 0.18783199787139893 0.2220200002193451
          1.7704099416732788 0.19162799417972565 0.22391700744628906 2.016089916229248 0.1923999935388565 0.2242020070552826
          2.256459951400757 0.19255200028419495 0.22423399984836578 2.4942500591278076 0.1925780028104782 0.22423599660396576
          2.7309000492095947 0.19258099794387817 0.22423699498176575 2.9670801162719727 0.19258099794387817 0.22423900663852692
          3.203089952468872 0.19258099794387817 0.2242400050163269 3.4390499591827393 0.19258099794387817 0.2242410033941269
          3.674999952316284 0.19257999956607819 0.22424200177192688 3.910939931869507 0.19257999956607819 0.22424200177192688
          4.146870136260986 0.19257999956607819 0.22424200177192688 4.382810115814209 0.19257999956607819 0.22424200177192688
          4.618750095367432 0.19257999956607819 0.22424200177192688 4.854690074920654 0.19257999956607819 0.22424200177192688
          5.090620040893555 0.19257999956607819 0.22424200177192688 5.326560020446777 0.19257999956607819 0.22424200177192688
          5.5625 0.19257999956607819 0.22424200177192688 5.798439979553223 0.19257999956607819 0.22424200177192688
          6.034379959106445 0.19257999956607819 0.22424200177192688 6.270309925079346 0.19257999956607819 0.22424200177192688
          6.506249904632568 0.19257999956607819 0.22424200177192688 6.742189884185791 0.19257999956607819 0.22424200177192688
          6.978129863739014 0.19257999956607819 0.22424200177192688 7.214059829711914 0.19257999956607819 0.22424200177192688
          7.449999809265137 0.19257999956607819 0.22424200177192688 7.685939788818359 0.1925790011882782 0.2242410033941269
          7.921879768371582 0.19257600605487823 0.2242400050163269 8.15783977508545 0.1925719976425171 0.22423799335956573
          8.39385986328125 0.192563995718956 0.22423599660396576 8.630020141601562 0.19255399703979492 0.22423499822616577
          8.866559982299805 0.1925400048494339 0.22423599660396576 9.103819847106934 0.19248299300670624 0.22421100735664368
          9.342269897460938 0.1920740008354187 0.22392000257968903 9.58218002319336 0.18945500254631042 0.2218180000782013
          9.824179649353027 0.17790700495243073 0.2125750035047531 10 0.19681799411773682 0.24008800089359283
          1 0.44934698939323425 0.24582499265670776 1.2256799936294556 0.4434550106525421 0.22808000445365906
          1.5069299936294556 0.44240298867225647 0.24749800562858582 1.7658499479293823 0.4425249993801117 0.25288501381874084
          2.013629913330078 0.4425239861011505 0.25415000319480896 2.2552499771118164 0.44246798753738403 0.2544650137424469
          2.4937000274658203 0.44242098927497864 0.25454801321029663 2.730649948120117 0.4423919916152954 0.2545720040798187
          2.9669699668884277 0.4423770010471344 0.25457900762557983 3.203049898147583 0.4423699975013733 0.2545810043811798
          3.4390299320220947 0.44236600399017334 0.2545819878578186 3.674989938735962 0.44236400723457336 0.2545819878578186
          3.9109299182891846 0.4423629939556122 0.2545819878578186 4.146870136260986 0.4423629939556122 0.2545819878578186
          4.382810115814209 0.4423620104789734 0.2545819878578186 4.618750095367432 0.4423620104789734 0.2545819878578186
          4.854690074920654 0.4423620104789734 0.2545819878578186 5.090620040893555 0.4423620104789734 0.2545819878578186
          5.326560020446777 0.4423620104789734 0.2545819878578186 5.5625 0.4423620104789734 0.2545819878578186
          5.798439979553223 0.4423620104789734 0.2545819878578186 6.034379959106445 0.4423620104789734 0.2545819878578186
          6.270309925079346 0.4423620104789734 0.2545819878578186 6.506249904632568 0.4423620104789734 0.2545819878578186
          6.742189884185791 0.4423620104789734 0.2545819878578186 6.978129863739014 0.4423620104789734 0.2545819878578186
          7.214059829711914 0.4423620104789734 0.2545819878578186 7.449999809265137 0.4423609972000122 0.2545819878578186
          7.685939788818359 0.4423600137233734 0.2545819878578186 7.921889781951904 0.4423559904098511 0.25457999110221863
          8.157870292663574 0.44234699010849 0.2545759975910187 8.393930435180664 0.4423289895057678 0.25456398725509644
          8.630200386047363 0.4422929883003235 0.2545270025730133 8.866939544677734 0.4422140121459961 0.25440698862075806
          9.10453987121582 0.4420120120048523 0.2539840042591095 9.343250274658203 0.4414229989051819 0.2523829936981201
          9.58236026763916 0.4396879971027374 0.24585799872875214 9.818819999694824 0.4358600080013275 0.22242200374603271
          10 0.43604201078414917 0.23527300357818604 1 0.7186220288276672 0.24128499627113342
          1.2393300533294678 0.7200760245323181 0.23286500573158264 1.5104700326919556 0.7099400162696838 0.2554340064525604
          1.766510009765625 0.7058820128440857 0.2621900141239166 2.013550043106079 0.7043359875679016 0.26395300030708313
          2.255079984664917 0.7037280201911926 0.2644380033016205 2.49357008934021 0.703478991985321 0.2645759880542755
          2.730570077896118 0.703374981880188 0.264616996049881 2.9669299125671387 0.7033309936523438 0.264629989862442
          3.2030301094055176 0.703311026096344 0.2646329998970032 3.4390199184417725 0.7033029794692993 0.26463499665260315
          3.6749799251556396 0.7032989859580994 0.26463499665260315 3.9109299182891846 0.7032970190048218 0.26463499665260315
          4.146870136260986 0.7032960057258606 0.26463499665260315 4.382810115814209 0.7032960057258606 0.26463499665260315
          4.618750095367432 0.7032960057258606 0.26463499665260315 4.854690074920654 0.7032960057258606 0.26463499665260315
          5.090620040893555 0.7032960057258606 0.26463499665260315 5.326560020446777 0.7032960057258606 0.26463499665260315
          5.5625 0.7032960057258606 0.26463499665260315 5.798439979553223 0.7032960057258606 0.26463499665260315
          6.034379959106445 0.7032960057258606 0.26463499665260315 6.270309925079346 0.7032960057258606 0.26463499665260315